# vtk DataFile Version 2.0
MATLAB FEM Results
ASCII
DATASET UNSTRUCTURED_GRID
POINTS 6849 float
1.000000 0.000000 0.000000
0.000000 1.000000 0.000000
0.000000 20.000000 0.000000
20.000000 20.000000 0.000000
20.000000 0.000000 0.000000
0.999802 0.019882 0.000000
0.999209 0.039757 0.000000
0.998221 0.059615 0.000000
0.996839 0.079450 0.000000
0.995062 0.099254 0.000000
0.992892 0.119018 0.000000
0.990329 0.138736 0.000000
0.987375 0.158398 0.000000
0.984031 0.177998 0.000000
0.980297 0.197527 0.000000
0.976176 0.216979 0.000000
0.971669 0.236344 0.000000
0.966778 0.255617 0.000000
0.961505 0.274788 0.000000
0.955851 0.293850 0.000000
0.949820 0.312797 0.000000
0.943413 0.331619 0.000000
0.936633 0.350311 0.000000
0.929483 0.368864 0.000000
0.921966 0.387271 0.000000
0.914084 0.405525 0.000000
0.905840 0.423619 0.000000
0.897239 0.441545 0.000000
0.888283 0.459297 0.000000
0.878975 0.476868 0.000000
0.869320 0.494249 0.000000
0.859322 0.511435 0.000000
0.848983 0.528420 0.000000
0.838309 0.545195 0.000000
0.827304 0.561754 0.000000
0.815972 0.578092 0.000000
0.804317 0.594201 0.000000
0.792344 0.610075 0.000000
0.780057 0.625708 0.000000
0.767463 0.641094 0.000000
0.754565 0.656226 0.000000
0.741368 0.671098 0.000000
0.727879 0.685706 0.000000
0.714102 0.700042 0.000000
0.700042 0.714102 0.000000
0.685706 0.727879 0.000000
0.671098 0.741368 0.000000
0.656226 0.754565 0.000000
0.641094 0.767463 0.000000
0.625708 0.780057 0.000000
0.610075 0.792344 0.000000
0.594201 0.804317 0.000000
0.578092 0.815972 0.000000
0.561754 0.827304 0.000000
0.545195 0.838309 0.000000
0.528420 0.848983 0.000000
0.511435 0.859322 0.000000
0.494249 0.869320 0.000000
0.476868 0.878975 0.000000
0.459297 0.888283 0.000000
0.441545 0.897239 0.000000
0.423619 0.905840 0.000000
0.405525 0.914084 0.000000
0.387271 0.921966 0.000000
0.368864 0.929483 0.000000
0.350311 0.936633 0.000000
0.331619 0.943413 0.000000
0.312797 0.949820 0.000000
0.293850 0.955851 0.000000
0.274788 0.961505 0.000000
0.255617 0.966778 0.000000
0.236344 0.971669 0.000000
0.216979 0.976176 0.000000
0.197527 0.980297 0.000000
0.177998 0.984031 0.000000
0.158398 0.987375 0.000000
0.138736 0.990329 0.000000
0.119018 0.992892 0.000000
0.099254 0.995062 0.000000
0.079450 0.996839 0.000000
0.059615 0.998221 0.000000
0.039757 0.999209 0.000000
0.019882 0.999802 0.000000
0.000000 19.004812 0.000000
0.000000 18.009623 0.000000
0.000000 17.014435 0.000000
0.000000 16.019247 0.000000
0.000000 15.024058 0.000000
0.000000 14.028870 0.000000
0.000000 13.033682 0.000000
0.000000 12.038494 0.000000
0.000000 11.043305 0.000000
0.000000 10.048117 0.000000
0.000000 9.132205 0.000000
0.000000 8.469813 0.000000
0.000000 7.996382 0.000000
0.000000 7.598307 0.000000
0.000000 7.200231 0.000000
0.000000 6.802156 0.000000
0.000000 6.404081 0.000000
0.000000 6.006005 0.000000
0.000000 5.607930 0.000000
0.000000 5.209855 0.000000
0.000000 4.812207 0.000000
0.000000 4.457389 0.000000
0.000000 4.198638 0.000000
0.000000 4.014796 0.000000
0.000000 3.865274 0.000000
0.000000 3.715996 0.000000
0.000000 3.566718 0.000000
0.000000 3.417440 0.000000
0.000000 3.268161 0.000000
0.000000 3.118883 0.000000
0.000000 2.969605 0.000000
0.000000 2.820327 0.000000
0.000000 2.671048 0.000000
0.000000 2.521770 0.000000
0.000000 2.372492 0.000000
0.000000 2.238557 0.000000
0.000000 2.127506 0.000000
0.000000 2.050263 0.000000
0.000000 1.992450 0.000000
0.000000 1.942690 0.000000
0.000000 1.892931 0.000000
0.000000 1.843171 0.000000
0.000000 1.793412 0.000000
0.000000 1.743653 0.000000
0.000000 1.693893 0.000000
0.000000 1.644134 0.000000
0.000000 1.594374 0.000000
0.000000 1.552187 0.000000
0.000000 1.520545 0.000000
0.000000 1.497594 0.000000
0.000000 1.477690 0.000000
0.000000 1.457787 0.000000
0.000000 1.437883 0.000000
0.000000 1.417979 0.000000
0.000000 1.398075 0.000000
0.000000 1.378172 0.000000
0.000000 1.358268 0.000000
0.000000 1.338364 0.000000
0.000000 1.318460 0.000000
0.000000 1.298556 0.000000
0.000000 1.278653 0.000000
0.000000 1.258749 0.000000
0.000000 1.238845 0.000000
0.000000 1.218941 0.000000
0.000000 1.199038 0.000000
0.000000 1.179134 0.000000
0.000000 1.159230 0.000000
0.000000 1.139326 0.000000
0.000000 1.119423 0.000000
0.000000 1.099519 0.000000
0.000000 1.079615 0.000000
0.000000 1.059711 0.000000
0.000000 1.039808 0.000000
0.000000 1.019904 0.000000
19.000000 20.000000 0.000000
18.000000 20.000000 0.000000
17.000000 20.000000 0.000000
16.000000 20.000000 0.000000
15.000000 20.000000 0.000000
14.000000 20.000000 0.000000
13.000000 20.000000 0.000000
12.000000 20.000000 0.000000
11.000000 20.000000 0.000000
10.000000 20.000000 0.000000
9.000000 20.000000 0.000000
8.000000 20.000000 0.000000
7.000000 20.000000 0.000000
6.000000 20.000000 0.000000
5.000000 20.000000 0.000000
4.000000 20.000000 0.000000
3.000000 20.000000 0.000000
2.000000 20.000000 0.000000
1.000000 20.000000 0.000000
20.000000 1.000000 0.000000
20.000000 2.000000 0.000000
20.000000 3.000000 0.000000
20.000000 4.000000 0.000000
20.000000 5.000000 0.000000
20.000000 6.000000 0.000000
20.000000 7.000000 0.000000
20.000000 8.000000 0.000000
20.000000 9.000000 0.000000
20.000000 10.000000 0.000000
20.000000 11.000000 0.000000
20.000000 12.000000 0.000000
20.000000 13.000000 0.000000
20.000000 14.000000 0.000000
20.000000 15.000000 0.000000
20.000000 16.000000 0.000000
20.000000 17.000000 0.000000
20.000000 18.000000 0.000000
20.000000 19.000000 0.000000
1.019904 0.000000 0.000000
1.039808 0.000000 0.000000
1.059711 0.000000 0.000000
1.079615 0.000000 0.000000
1.099519 0.000000 0.000000
1.119423 0.000000 0.000000
1.139326 0.000000 0.000000
1.159230 0.000000 0.000000
1.179134 0.000000 0.000000
1.199038 0.000000 0.000000
1.218941 0.000000 0.000000
1.238845 0.000000 0.000000
1.258749 0.000000 0.000000
1.278653 0.000000 0.000000
1.298556 0.000000 0.000000
1.318460 0.000000 0.000000
1.338364 0.000000 0.000000
1.358268 0.000000 0.000000
1.378172 0.000000 0.000000
1.398075 0.000000 0.000000
1.417979 0.000000 0.000000
1.437883 0.000000 0.000000
1.457787 0.000000 0.000000
1.477690 0.000000 0.000000
1.497594 0.000000 0.000000
1.520545 0.000000 0.000000
1.552187 0.000000 0.000000
1.594374 0.000000 0.000000
1.644134 0.000000 0.000000
1.693893 0.000000 0.000000
1.743653 0.000000 0.000000
1.793412 0.000000 0.000000
1.843171 0.000000 0.000000
1.892931 0.000000 0.000000
1.942690 0.000000 0.000000
1.992450 0.000000 0.000000
2.050263 0.000000 0.000000
2.127506 0.000000 0.000000
2.238557 0.000000 0.000000
2.372492 0.000000 0.000000
2.521770 0.000000 0.000000
2.671048 0.000000 0.000000
2.820327 0.000000 0.000000
2.969605 0.000000 0.000000
3.118883 0.000000 0.000000
3.268161 0.000000 0.000000
3.417440 0.000000 0.000000
3.566718 0.000000 0.000000
3.715996 0.000000 0.000000
3.865274 0.000000 0.000000
4.014796 0.000000 0.000000
4.198638 0.000000 0.000000
4.457389 0.000000 0.000000
4.812207 0.000000 0.000000
5.209855 0.000000 0.000000
5.607930 0.000000 0.000000
6.006005 0.000000 0.000000
6.404081 0.000000 0.000000
6.802156 0.000000 0.000000
7.200231 0.000000 0.000000
7.598307 0.000000 0.000000
7.996382 0.000000 0.000000
8.469813 0.000000 0.000000
9.132205 0.000000 0.000000
10.048117 0.000000 0.000000
11.043305 0.000000 0.000000
12.038494 0.000000 0.000000
13.033682 0.000000 0.000000
14.028870 0.000000 0.000000
15.024058 0.000000 0.000000
16.019247 0.000000 0.000000
17.014435 0.000000 0.000000
18.009623 0.000000 0.000000
19.004812 0.000000 0.000000
0.033526 1.968129 0.000000
1.970584 0.044546 0.000000
0.401455 0.936936 0.000000
0.933047 0.401704 0.000000
1.508960 0.021233 0.000000
0.022777 1.508903 0.000000
3.939383 0.141252 0.000000
0.133122 3.938152 0.000000
0.017368 1.366394 0.000000
1.369168 0.017839 0.000000
0.308406 0.968839 0.000000
0.970062 0.308385 0.000000
0.123767 3.050422 0.000000
7.793460 0.379061 0.000000
3.034215 0.135483 0.000000
0.385065 7.798949 0.000000
0.039046 1.667173 0.000000
1.669572 0.038828 0.000000
0.015659 1.268716 0.000000
1.268701 0.017237 0.000000
5.872985 0.375825 0.000000
0.303040 4.993794 0.000000
0.094005 2.300637 0.000000
2.305524 0.106082 0.000000
0.211835 0.994344 0.000000
0.994616 0.211262 0.000000
0.475815 0.898213 0.000000
0.897838 0.475597 0.000000
9.548180 19.053391 0.000000
19.211729 9.618609 0.000000
0.018656 1.189771 0.000000
1.189224 0.016703 0.000000
0.827530 10.545711 0.000000
10.585585 0.771361 0.000000
4.633235 0.254099 0.000000
0.130893 1.008614 0.000000
1.008119 0.131252 0.000000
13.500000 19.133975 0.000000
0.806914 13.580087 0.000000
1.818052 0.049416 0.000000
0.041137 1.820673 0.000000
13.532417 0.798468 0.000000
0.360064 6.175207 0.000000
19.134233 13.498047 0.000000
6.516802 19.195246 0.000000
19.134294 6.582011 0.000000
0.017597 1.126519 0.000000
1.129792 0.016295 0.000000
1.425723 0.015188 0.000000
0.015486 1.427894 0.000000
0.129279 3.492079 0.000000
3.492079 0.129279 0.000000
0.070836 1.014652 0.000000
1.013957 0.069066 0.000000
19.167518 3.443516 0.000000
3.604000 19.021771 0.000000
16.548529 19.045508 0.000000
2.594693 0.120660 0.000000
0.113973 2.603512 0.000000
1.569945 0.031359 0.000000
0.034020 1.566683 0.000000
0.162668 4.322478 0.000000
8.801009 0.491826 0.000000
0.481117 8.776843 0.000000
2.087616 0.051060 0.000000
0.062041 2.084242 0.000000
0.015743 1.067115 0.000000
1.069891 0.017915 0.000000
0.251161 0.986016 0.000000
0.985276 0.249880 0.000000
1.002212 0.170619 0.000000
0.170392 1.004162 0.000000
0.348601 0.958215 0.000000
0.956081 0.346147 0.000000
0.919348 0.439555 0.000000
0.439778 0.917728 0.000000
0.934176 16.583624 0.000000
16.572913 0.902228 0.000000
19.127217 16.492323 0.000000
11.495635 19.146992 0.000000
19.109914 11.466369 0.000000
1.228893 0.016771 0.000000
6.622503 0.329357 0.000000
0.017880 1.227441 0.000000
1.308508 0.017237 0.000000
0.015893 1.307814 0.000000
1.467512 0.016877 0.000000
0.324123 6.999951 0.000000
0.016151 1.466809 0.000000
0.031218 1.016254 0.000000
1.014206 0.030570 0.000000
1.540447 19.157298 0.000000
19.157195 1.540250 0.000000
[...]
POINT_DATA 6849
VECTORS displacement float
-439.585512 0.000000 0.000000
0.000000 1307.824991 0.000000
0.000000 8776.314698 0.000000
-3665.170577 8644.125231 0.000000
-3779.773340 0.000000 0.000000
-439.433403 26.038139 0.000000
-439.177064 52.073591 0.000000
-438.756168 78.025806 0.000000
-438.164183 103.969136 0.000000
-437.353148 129.737077 0.000000
-436.332840 155.677838 0.000000
-435.287502 181.419955 0.000000
-433.998766 207.125328 0.000000
-432.458972 232.817919 0.000000
-430.798189 258.234699 0.000000
-429.050288 283.700648 0.000000
-427.032775 309.105406 0.000000
-424.885192 334.358094 0.000000
-422.606041 359.392567 0.000000
-420.103423 384.205045 0.000000
-417.430903 408.966010 0.000000
-414.628894 433.592600 0.000000
-411.637679 458.026401 0.000000
-408.565167 482.321921 0.000000
-405.205319 506.398156 0.000000
-401.786464 530.283498 0.000000
-398.138653 554.008367 0.000000
-394.336733 577.363873 0.000000
-390.434222 600.600618 0.000000
-386.317121 623.624476 0.000000
-382.073115 646.368359 0.000000
-377.734030 668.813928 0.000000
-373.144164 691.081752 0.000000
-368.443658 712.993305 0.000000
-363.608715 734.664499 0.000000
-358.588839 756.035171 0.000000
-353.474022 777.092110 0.000000
-348.226870 797.851517 0.000000
-342.831237 818.300971 0.000000
-337.290149 838.415025 0.000000
-331.612720 858.203870 0.000000
-325.795497 877.658367 0.000000
-319.867643 896.757888 0.000000
-313.801049 915.511160 0.000000
-307.648528 933.834736 0.000000
-301.333821 951.920604 0.000000
-294.873584 969.624122 0.000000
-288.354508 986.851281 0.000000
-281.678470 1003.743201 0.000000
-274.937040 1020.181294 0.000000
-268.085455 1036.244776 0.000000
-261.094545 1051.909285 0.000000
-254.010681 1067.135833 0.000000
-246.826575 1081.939215 0.000000
-239.535714 1096.351697 0.000000
-232.172130 1110.323961 0.000000
-224.676417 1123.855327 0.000000
-217.150366 1136.920755 0.000000
-209.510470 1149.547108 0.000000
-201.774790 1161.728054 0.000000
-193.965373 1173.441321 0.000000
-186.117789 1184.674178 0.000000
-178.146585 1195.484187 0.000000
-170.180481 1205.728449 0.000000
-162.001814 1215.604375 0.000000
-153.847161 1224.944081 0.000000
-145.696864 1233.805793 0.000000
-137.400648 1242.175878 0.000000
-129.069605 1250.034807 0.000000
-120.688183 1257.471135 0.000000
-112.269315 1264.375597 0.000000
-103.815609 1270.768215 0.000000
-95.307888 1276.639995 0.000000
-86.707876 1282.010902 0.000000
-78.199341 1286.928525 0.000000
-69.600809 1291.294144 0.000000
-60.961125 1295.156108 0.000000
-52.288789 1298.511034 0.000000
-43.606181 1301.345906 0.000000
-34.910717 1303.669046 0.000000
-26.205651 1305.486700 0.000000
-17.493379 1306.791494 0.000000
-8.755262 1307.495596 0.000000
0.000000 8347.685685 0.000000
0.000000 7918.829602 0.000000
0.000000 7489.954752 0.000000
0.000000 7061.194202 0.000000
0.000000 6632.721533 0.000000
0.000000 6204.761780 0.000000
0.000000 5777.504620 0.000000
0.000000 5351.323035 0.000000
0.000000 4926.153577 0.000000
0.000000 4502.657739 0.000000
0.000000 4114.655438 0.000000
0.000000 3835.681365 0.000000
0.000000 3637.276851 0.000000
0.000000 3471.291995 0.000000
0.000000 3306.127308 0.000000
0.000000 3141.912600 0.000000
0.000000 2978.853314 0.000000
0.000000 2817.220618 0.000000
0.000000 2657.218015 0.000000
0.000000 2499.119666 0.000000
0.000000 2343.648082 0.000000
0.000000 2207.599129 0.000000
0.000000 2110.240919 0.000000
0.000000 2042.253132 0.000000
0.000000 1987.756106 0.000000
0.000000 1934.235168 0.000000
0.000000 1881.599166 0.000000
0.000000 1829.975492 0.000000
0.000000 1779.508890 0.000000
0.000000 1730.307565 0.000000
0.000000 1682.580951 0.000000
0.000000 1636.523540 0.000000
0.000000 1592.334087 0.000000
0.000000 1550.308593 0.000000
0.000000 1510.794579 0.000000
0.000000 1477.782676 0.000000
0.000000 1452.091907 0.000000
0.000000 1435.572840 0.000000
0.000000 1423.888722 0.000000
0.000000 1414.281404 0.000000
0.000000 1405.106908 0.000000
0.000000 1396.430136 0.000000
0.000000 1388.248014 0.000000
0.000000 1380.612612 0.000000
0.000000 1373.490459 0.000000
0.000000 1366.906213 0.000000
0.000000 1360.896210 0.000000
0.000000 1356.192188 0.000000
0.000000 1352.927610 0.000000
0.000000 1350.702743 0.000000
0.000000 1348.854079 0.000000
0.000000 1347.083381 0.000000
0.000000 1345.391088 0.000000
0.000000 1343.780843 0.000000
0.000000 1342.243187 0.000000
0.000000 1340.766592 0.000000
0.000000 1339.349356 0.000000
0.000000 1337.987001 0.000000
0.000000 1336.672563 0.000000
0.000000 1335.392616 0.000000
0.000000 1334.143404 0.000000
0.000000 1332.903098 0.000000
0.000000 1331.671782 0.000000
0.000000 1330.410920 0.000000
0.000000 1329.125204 0.000000
0.000000 1327.783977 0.000000
0.000000 1326.391587 0.000000
0.000000 1324.825225 0.000000
0.000000 1323.147352 0.000000
0.000000 1321.321388 0.000000
0.000000 1319.270855 0.000000
0.000000 1316.897419 0.000000
0.000000 1314.265155 0.000000
0.000000 1311.253080 0.000000
-3479.449624 8651.249029 0.000000
-3293.709437 8658.384915 0.000000
-3107.941960 8665.586981 0.000000
-2922.188881 8672.889498 0.000000
-2736.470016 8680.348261 0.000000
-2550.852960 8687.950792 0.000000
-2365.374979 8695.749297 0.000000
-2180.129137 8703.721467 0.000000
-1995.203072 8711.850149 0.000000
-1810.691202 8720.088434 0.000000
-1626.673879 8728.343478 0.000000
-1443.271284 8736.416447 0.000000
-1260.575319 8744.448667 0.000000
-1078.581568 8751.793843 0.000000
-897.403491 8758.694619 0.000000
-716.899416 8764.657371 0.000000
-536.949598 8769.498542 0.000000
-357.616929 8773.145383 0.000000
-178.685729 8775.373318 0.000000
-3779.037542 429.623320 0.000000
-3777.281250 859.414945 0.000000
-3774.399603 1289.484878 0.000000
-3770.515829 1719.893419 0.000000
-3765.773398 2150.737134 0.000000
-3760.258273 2582.033991 0.000000
-3754.327529 3013.776304 0.000000
-3747.979184 3445.927198 0.000000
-3741.406155 3878.495957 0.000000
-3734.655947 4311.318007 0.000000
-3727.878179 4744.381387 0.000000
-3721.070086 5177.598804 0.000000
-3714.224527 5610.900070 0.000000
-3707.358410 6044.238526 0.000000
-3700.462649 6477.576992 0.000000
-3693.517832 6910.895946 0.000000
-3686.506583 7344.196388 0.000000
-3679.428616 7777.491631 0.000000
-3672.306758 8210.798900 0.000000
-450.179741 0.000000 0.000000
-459.936172 0.000000 0.000000
-468.851188 0.000000 0.000000
-477.025974 0.000000 0.000000
-484.534061 0.000000 0.000000
-491.457490 0.000000 0.000000
-497.853247 0.000000 0.000000
-503.768981 0.000000 0.000000
-509.271108 0.000000 0.000000
-514.397297 0.000000 0.000000
-519.180837 0.000000 0.000000
-523.656281 0.000000 0.000000
-527.860585 0.000000 0.000000
-531.830786 0.000000 0.000000
-535.586411 0.000000 0.000000
-539.139574 0.000000 0.000000
-542.513042 0.000000 0.000000
-545.730729 0.000000 0.000000
-548.786122 0.000000 0.000000
-551.712983 0.000000 0.000000
-554.551796 0.000000 0.000000
-557.283227 0.000000 0.000000
-559.921879 0.000000 0.000000
-562.474901 0.000000 0.000000
-564.965165 0.000000 0.000000
-567.773817 0.000000 0.000000
-571.475638 0.000000 0.000000
-576.309771 0.000000 0.000000
-581.719572 0.000000 0.000000
-587.028707 0.000000 0.000000
-592.262002 0.000000 0.000000
-597.447789 0.000000 0.000000
-602.600082 0.000000 0.000000
-607.754010 0.000000 0.000000
-612.949347 0.000000 0.000000
-618.181427 0.000000 0.000000
-624.343735 0.000000 0.000000
-632.725707 0.000000 0.000000
-645.084134 0.000000 0.000000
-660.754084 0.000000 0.000000
-678.625190 0.000000 0.000000
-697.352201 0.000000 0.000000
-716.793371 0.000000 0.000000
-736.914561 0.000000 0.000000
-757.562455 0.000000 0.000000
-778.782227 0.000000 0.000000
-800.445354 0.000000 0.000000
-822.537541 0.000000 0.000000
-845.090146 0.000000 0.000000
-868.017590 0.000000 0.000000
-891.321262 0.000000 0.000000
-920.411782 0.000000 0.000000
-962.199864 0.000000 0.000000
-1020.369181 0.000000 0.000000
-1086.931388 0.000000 0.000000
-1154.727726 0.000000 0.000000
-1223.227115 0.000000 0.000000
-1292.475725 0.000000 0.000000
-1362.369724 0.000000 0.000000
-1432.804652 0.000000 0.000000
-1503.681190 0.000000 0.000000
-1574.925921 0.000000 0.000000
-1660.064561 0.000000 0.000000
-1779.807032 0.000000 0.000000
-1946.376035 0.000000 0.000000
-2128.219387 0.000000 0.000000
-2310.881416 0.000000 0.000000
-2493.824836 0.000000 0.000000
-2677.233290 0.000000 0.000000
-2860.985639 0.000000 0.000000
-3044.675121 0.000000 0.000000
-3228.581467 0.000000 0.000000
-3412.458852 0.000000 0.000000
-3596.230048 0.000000 0.000000
-2.497869 1418.785416 0.000000
-615.524164 21.475348 0.000000
-161.815642 1198.703693 0.000000
-406.128297 505.519482 0.000000
-566.210245 12.513535 0.000000
-1.537962 1351.529039 0.000000
-878.972014 61.617214 0.000000
-19.771476 2013.522975 0.000000
-1.562633 1339.759180 0.000000
-547.331610 11.925981 0.000000
-124.965494 1245.498888 0.000000
-424.281597 385.381304 0.000000
-15.571632 1707.029858 0.000000
-1538.006270 164.852577 0.000000
-744.726554 59.664014 0.000000
-67.982323 3554.089076 0.000000
-2.481862 1369.307239 0.000000
-584.091558 20.727123 0.000000
-1.949283 1333.372243 0.000000
-529.770035 13.064678 0.000000
-1198.922853 163.535561 0.000000
-49.212212 2412.614496 0.000000
-8.735916 1491.217267 0.000000
-651.522985 48.503654 0.000000
-85.494122 1280.301150 0.000000
-437.089032 264.379592 0.000000
-195.409330 1150.646779 0.000000
-388.618394 599.414963 0.000000
-1734.697867 8314.256136 0.000000
-3590.975151 4151.314375 0.000000
-3.205227 1328.311172 0.000000
-511.839668 14.338080 0.000000
-149.746619 4712.543415 0.000000
-2043.477332 335.143003 0.000000
-989.734348 110.617382 0.000000
-52.548547 1299.260507 0.000000
-444.035163 164.209163 0.000000
-2464.655302 8316.648456 0.000000
-147.059015 6011.122068 0.000000
-599.501093 24.848320 0.000000
-2.796284 1392.118707 0.000000
-2585.021708 346.300636 0.000000
-61.446449 2884.304372 0.000000
-3550.004947 5832.647054 0.000000
-1177.929334 8400.565622 0.000000
-3596.572802 2837.995345 0.000000
-4.027703 1323.599374 0.000000
-494.786516 15.640759 0.000000
-555.557688 9.587973 0.000000
-1.204955 1344.446366 0.000000
-17.955966 1854.782418 0.000000
-810.770745 56.530343 0.000000
-28.403661 1307.458112 0.000000
-447.133276 86.383751 0.000000
-3619.121484 1483.164861 0.000000
-649.719349 8345.065413 0.000000
-3031.024866 8255.245629 0.000000
-686.436500 54.030840 0.000000
-12.305301 1571.447466 0.000000
-573.254278 17.698684 0.000000
-2.200413 1357.237300 0.000000
-25.060317 2155.757326 0.000000
-1719.208057 213.847751 0.000000
-86.055542 3963.902553 0.000000
-627.996243 24.061781 0.000000
-4.977905 1441.923259 0.000000
-4.863966 1317.697686 0.000000
-473.082699 19.600475 0.000000
-101.073656 1267.885393 0.000000
-432.304356 313.118085 0.000000
-441.001514 213.395637 0.000000
-67.954581 1291.369723 0.000000
-139.684664 1227.133151 0.000000
-417.404137 434.061863 0.000000
-398.105114 549.584777 0.000000
-179.170370 1175.115824 0.000000
-169.814136 7303.557432 0.000000
-3146.466002 390.126039 0.000000
-3527.991726 7130.350387 0.000000
-2093.416534 8338.445827 0.000000
-3559.426995 4952.356873 0.000000
-521.371685 13.476435 0.000000
-1330.058499 143.256717 0.000000
-2.610400 1330.761825 0.000000
-537.291798 12.376089 0.000000
-1.714813 1335.828140 0.000000
-561.087084 10.266484 0.000000
-56.510288 3222.599445 0.000000
-1.169187 1347.740184 0.000000
-12.556812 1310.144843 0.000000
-447.297906 38.399600 0.000000
-277.070220 8411.472929 0.000000
-3622.867159 663.172875 0.000000
-3374.839429 8258.815450 0.000000
-946.673192 117.688674 0.000000
-960.882907 211.510561 0.000000
-1006.617837 231.940485 0.000000
-974.140400 325.197199 0.000000
-928.614779 305.596348 0.000000
-939.485392 423.337018 0.000000
-891.292177 402.950290 0.000000
-893.490379 519.555875 0.000000
-853.580104 530.623291 0.000000
-847.568131 628.436039 0.000000
-807.622377 619.334558 0.000000
-816.957510 717.054432 0.000000
-787.857005 697.034566 0.000000
-859.157034 745.881663 0.000000
-823.645004 845.996575 0.000000
-883.330593 870.165078 0.000000
-830.357477 991.295261 0.000000
-898.922731 1023.218182 0.000000
-829.345132 1170.443851 0.000000
-910.347076 1191.965384 0.000000
-850.161739 1345.758223 0.000000
-923.028683 1365.792811 0.000000
-860.402219 1509.244938 0.000000
-936.954339 1534.927195 0.000000
-862.535587 1688.748996 0.000000
-951.106541 1706.016319 0.000000
-891.007593 1848.371352 0.000000
-970.920874 1873.066536 0.000000
-1029.686654 1732.880919 0.000000
-1047.938612 1901.184597 0.000000
-990.057386 2041.064602 0.000000
-1066.962325 2069.175605 0.000000
-1010.007247 2208.594095 0.000000
-1086.759912 2236.735974 0.000000
-1030.653181 2375.642537 0.000000
-1107.216670 2403.867187 0.000000
-1051.863448 2542.253549 0.000000
-1128.211732 2570.604892 0.000000
-1073.522222 2708.484254 0.000000
-1150.357862 2738.419107 0.000000
-1095.651437 2874.619104 0.000000
-1172.402346 2903.988609 0.000000
-1120.150309 3038.350044 0.000000
-1195.104296 3068.866109 0.000000
-1144.602616 3202.002141 0.000000
-1216.706420 3233.814025 0.000000
-1268.922587 3098.257667 0.000000
-1290.012780 3264.756776 0.000000
-1233.660845 3443.001045 0.000000
-1322.681645 3411.115002 0.000000
-1377.048968 3264.618508 0.000000
-1387.791387 3416.932104 0.000000
-1339.983736 3594.840244 0.000000
-1439.427393 3340.755268 0.000000
-1454.031263 3514.502772 0.000000
-1513.119333 3338.434451 0.000000
-1571.968639 3579.141492 0.000000
-1037.134446 3030.660757 0.000000
-767.535366 1316.790746 0.000000
-815.646014 1851.631828 0.000000
-1163.055103 2265.860115 0.000000
-1648.862719 3303.330469 0.000000
-1713.277399 3622.266425 0.000000
-1624.478211 3879.648443 0.000000
-1771.921583 3917.044925 0.000000
-1683.674422 4198.682483 0.000000
-1831.085137 4226.348849 0.000000
-1860.929024 3635.811174 0.000000
-1741.284229 4513.704110 0.000000
-1891.977264 4540.534051 0.000000
-1106.142808 1762.198419 0.000000
-975.200073 2514.856931 0.000000
-1800.103299 4833.221177 0.000000
-1953.213819 4862.860383 0.000000
-2044.682401 4557.773528 0.000000
-1647.593211 4804.888010 0.000000
-2108.695558 4891.110105 0.000000
-809.678518 540.626728 0.000000
-1205.201838 3714.555497 0.000000
-1707.127536 5130.904155 0.000000
-1548.488424 5097.392529 0.000000
-2202.608132 4577.356082 0.000000
-2267.674626 4916.759029 0.000000
-2170.569469 5228.522865 0.000000
-2332.579403 5255.413560 0.000000
-986.912089 1224.513339 0.000000
-1612.615472 5433.504405 0.000000
-1450.000601 5398.067126 0.000000
-2364.519813 4606.543186 0.000000
-1511.885654 5733.517011 0.000000
-1353.346841 5707.774917 0.000000
-2233.456604 5571.526265 0.000000
-2398.466098 5599.613645 0.000000
-995.327255 447.263149 0.000000
-2297.129757 5921.890444 0.000000
-2464.002300 5952.114446 0.000000
-1394.582370 6043.969302 0.000000
-1254.721794 6020.431687 0.000000
-1192.836220 5674.350359 0.000000
-1092.335897 5989.923998 0.000000
-1028.789677 5639.480086 0.000000
-2565.173959 5625.351265 0.000000
-2632.886829 5982.306125 0.000000
-763.289223 962.453201 0.000000
-2361.241111 6277.236933 0.000000
-2193.321012 6246.069119 0.000000
-2298.652809 4264.435663 0.000000
-2460.261242 4290.994652 0.000000
-2397.462299 3955.639022 0.000000
-2558.880775 3976.638457 0.000000
-2493.746603 3628.531888 0.000000
-2659.791593 3659.682836 0.000000
-2593.640935 3307.226586 0.000000
-2728.616171 3979.069819 0.000000
-1151.720549 6334.799002 0.000000
-990.073293 6307.781052 0.000000
-2762.031246 3341.962941 0.000000
-2695.131893 2983.250174 0.000000
-2526.427726 2954.770826 0.000000
-2626.739302 2628.609690 0.000000
-2458.624552 2606.316224 0.000000
-2797.348737 2652.777340 0.000000
-2727.142849 2294.320598 0.000000
-2736.229396 5648.283526 0.000000
-2804.323708 6012.141287 0.000000
-1546.843741 3085.547336 0.000000
-1660.077454 2964.002779 0.000000
-1529.950973 2774.347077 0.000000
-1681.466091 2644.609899 0.000000
-1569.196800 2433.397194 0.000000
-1719.650563 2324.326790 0.000000
-1615.699448 2117.457519 0.000000
-1756.093357 2005.792049 0.000000
-1666.052350 1799.931902 0.000000
-1126.697078 5328.110621 0.000000
-964.201523 5293.424935 0.000000
-866.384848 5602.106017 0.000000
-802.277851 5256.254541 0.000000
-2899.492422 2318.415739 0.000000
-834.230648 1994.502316 0.000000
-753.577986 1974.260400 0.000000
-776.894248 2132.383315 0.000000
-697.421736 2117.024170 0.000000
-720.575791 2276.666294 0.000000
-645.479675 2260.438410 0.000000
-666.593418 2419.307610 0.000000
-624.060521 2115.753526 0.000000
-581.806349 2395.464329 0.000000
-612.290501 2559.548263 0.000000
-535.078321 2547.547960 0.000000
-561.688788 2701.154954 0.000000
-486.757919 2680.767475 0.000000
-512.354192 2838.424498 0.000000
-587.118889 2860.407200 0.000000
-537.440830 2997.879799 0.000000
-611.920572 3021.219085 0.000000
-562.356641 3157.885049 0.000000
-636.619298 3182.308087 0.000000
-587.122581 3318.330935 0.000000
-461.872778 2520.889460 0.000000
-513.577553 3293.243176 0.000000
-538.315299 3453.187767 0.000000
-465.492970 3427.221797 0.000000
-613.523204 3482.591425 0.000000
-555.549242 3660.721073 0.000000
-438.385684 2817.184462 0.000000
-652.089823 3689.290005 0.000000
-686.906351 3045.219103 0.000000
-578.871249 3906.193341 0.000000
-702.954383 3928.643736 0.000000
-1205.067601 2601.449882 0.000000
-1056.033225 6668.464428 0.000000
-887.315877 6632.799998 0.000000
-1226.891485 6605.466637 0.000000
-731.724753 1804.066086 0.000000
-2699.057671 6346.523586 0.000000
-2828.396170 1954.903209 0.000000
-2655.569736 1931.952186 0.000000
-1793.278837 1690.639641 0.000000
-1693.953177 1472.187087 0.000000
-1897.103716 1899.611940 0.000000
-2257.084978 6605.171921 0.000000
-2086.811571 6574.463231 0.000000
-2872.897505 6378.903922 0.000000
-2766.829965 6718.221376 0.000000
-2907.961859 5674.322894 0.000000
-956.709918 879.748746 0.000000
-1814.285093 2571.829433 0.000000
-954.709804 7000.310863 0.000000
-1559.716554 1602.370917 0.000000
-1580.428145 1287.846047 0.000000
-2970.076619 2681.616661 0.000000
-1488.811258 4768.487154 0.000000
-625.401874 4195.383742 0.000000
-1931.027832 1570.852888 0.000000
-2039.759370 1787.109385 0.000000
-1487.256206 1395.035178 0.000000
-1533.646820 1125.457440 0.000000
-1435.232943 1232.793375 0.000000
-1061.903915 4988.383089 0.000000
-784.824376 6961.567856 0.000000
-2076.349593 1438.081875 0.000000
-724.649163 6602.009116 0.000000
-3073.927367 2343.023107 0.000000
-2359.375346 2928.961679 0.000000
-2935.770246 6758.130088 0.000000
-704.718056 5564.716937 0.000000
-2839.802773 5310.395511 0.000000
-641.854958 5198.788169 0.000000
-2152.334696 6936.535067 0.000000
-1980.923267 6905.760685 0.000000
-1606.317276 1016.245511 0.000000
-1657.271796 5765.239657 0.000000
-2755.977953 1588.768487 0.000000
-2929.916859 1612.276261 0.000000
-2832.900129 7096.018093 0.000000
-2583.992306 1577.675156 0.000000
-1089.045150 1593.496512 0.000000
-1164.312353 1624.299057 0.000000
-1147.794551 1455.702349 0.000000
-743.660285 2440.461559 0.000000
-1181.791591 1792.642559 0.000000
-1239.091981 1655.823844 0.000000
-1256.926251 1823.842606 0.000000
-440.690538 3268.254970 0.000000
-393.207835 3401.305877 0.000000
-368.550981 3243.244158 0.000000
-321.634149 3375.086000 0.000000
-297.252688 3217.851015 0.000000
-349.645414 3540.339602 0.000000
-1558.995715 865.244798 0.000000
-3013.105667 5336.002832 0.000000
-3011.779872 7126.676079 0.000000
-2657.776449 7061.245000 0.000000
-755.911324 4222.696546 0.000000
-271.512261 3510.263654 0.000000
-2944.619881 4970.031720 0.000000
-3060.514416 6433.973441 0.000000
-771.001207 3625.048245 0.000000
-490.175492 4148.093149 0.000000
-851.634437 7334.667152 0.000000
-677.291751 7287.024757 0.000000
-1308.764997 3913.627820 0.000000
-1171.262927 4027.206145 0.000000
-1024.034927 7371.687820 0.000000
-2856.082991 1243.907402 0.000000
-2294.140855 2585.677461 0.000000
-2197.569482 2900.128434 0.000000
-299.348492 3698.036257 0.000000
-1313.492481 1687.903326 0.000000
-3144.886279 2711.500406 0.000000
-3250.216678 2368.592387 0.000000
-872.996100 287.550813 0.000000
-2047.028823 7270.601205 0.000000