# vtk DataFile Version 2.0
MATLAB FEM Results
ASCII
DATASET UNSTRUCTURED_GRID
POINTS 11827 float
0.000000 0.000000 0.000000
1.000000 0.000000 0.000000
1.000000 1.000000 0.000000
0.000000 1.000000 0.000000
0.010000 0.000000 0.000000
0.020000 0.000000 0.000000
0.030000 0.000000 0.000000
0.040000 0.000000 0.000000
0.050000 0.000000 0.000000
0.060000 0.000000 0.000000
0.070000 0.000000 0.000000
0.080000 0.000000 0.000000
0.090000 0.000000 0.000000
0.100000 0.000000 0.000000
0.110000 0.000000 0.000000
0.120000 0.000000 0.000000
0.130000 0.000000 0.000000
0.140000 0.000000 0.000000
0.150000 0.000000 0.000000
0.160000 0.000000 0.000000
0.170000 0.000000 0.000000
0.180000 0.000000 0.000000
0.190000 0.000000 0.000000
0.200000 0.000000 0.000000
0.210000 0.000000 0.000000
0.220000 0.000000 0.000000
0.230000 0.000000 0.000000
0.240000 0.000000 0.000000
0.250000 0.000000 0.000000
0.260000 0.000000 0.000000
0.270000 0.000000 0.000000
0.280000 0.000000 0.000000
0.290000 0.000000 0.000000
0.300000 0.000000 0.000000
0.310000 0.000000 0.000000
0.320000 0.000000 0.000000
0.330000 0.000000 0.000000
0.340000 0.000000 0.000000
0.350000 0.000000 0.000000
0.360000 0.000000 0.000000
0.370000 0.000000 0.000000
0.380000 0.000000 0.000000
0.390000 0.000000 0.000000
0.400000 0.000000 0.000000
0.410000 0.000000 0.000000
0.420000 0.000000 0.000000
0.430000 0.000000 0.000000
0.440000 0.000000 0.000000
0.450000 0.000000 0.000000
0.460000 0.000000 0.000000
0.470000 0.000000 0.000000
0.480000 0.000000 0.000000
0.490000 0.000000 0.000000
0.500000 0.000000 0.000000
0.510000 0.000000 0.000000
0.520000 0.000000 0.000000
0.530000 0.000000 0.000000
0.540000 0.000000 0.000000
0.550000 0.000000 0.000000
0.560000 0.000000 0.000000
0.570000 0.000000 0.000000
0.580000 0.000000 0.000000
0.590000 0.000000 0.000000
0.600000 0.000000 0.000000
0.610000 0.000000 0.000000
0.620000 0.000000 0.000000
0.630000 0.000000 0.000000
0.640000 0.000000 0.000000
0.650000 0.000000 0.000000
0.660000 0.000000 0.000000
0.670000 0.000000 0.000000
0.680000 0.000000 0.000000
0.690000 0.000000 0.000000
0.700000 0.000000 0.000000
0.710000 0.000000 0.000000
0.720000 0.000000 0.000000
0.730000 0.000000 0.000000
0.740000 0.000000 0.000000
0.750000 0.000000 0.000000
0.760000 0.000000 0.000000
0.770000 0.000000 0.000000
0.780000 0.000000 0.000000
0.790000 0.000000 0.000000
0.800000 0.000000 0.000000
0.810000 0.000000 0.000000
0.820000 0.000000 0.000000
0.830000 0.000000 0.000000
0.840000 0.000000 0.000000
0.850000 0.000000 0.000000
0.860000 0.000000 0.000000
0.870000 0.000000 0.000000
0.880000 0.000000 0.000000
0.890000 0.000000 0.000000
0.900000 0.000000 0.000000
0.910000 0.000000 0.000000
0.920000 0.000000 0.000000
0.930000 0.000000 0.000000
0.940000 0.000000 0.000000
0.950000 0.000000 0.000000
0.960000 0.000000 0.000000
0.970000 0.000000 0.000000
0.980000 0.000000 0.000000
0.990000 0.000000 0.000000
1.000000 0.010000 0.000000
1.000000 0.020000 0.000000
1.000000 0.030000 0.000000
1.000000 0.040000 0.000000
1.000000 0.050000 0.000000
1.000000 0.060000 0.000000
1.000000 0.070000 0.000000
1.000000 0.080000 0.000000
1.000000 0.090000 0.000000
1.000000 0.100000 0.000000
1.000000 0.110000 0.000000
1.000000 0.120000 0.000000
1.000000 0.130000 0.000000
1.000000 0.140000 0.000000
1.000000 0.150000 0.000000
1.000000 0.160000 0.000000
1.000000 0.170000 0.000000
1.000000 0.180000 0.000000
1.000000 0.190000 0.000000
1.000000 0.200000 0.000000
1.000000 0.210000 0.000000
1.000000 0.220000 0.000000
1.000000 0.230000 0.000000
1.000000 0.240000 0.000000
1.000000 0.250000 0.000000
1.000000 0.260000 0.000000
1.000000 0.270000 0.000000
1.000000 0.280000 0.000000
1.000000 0.290000 0.000000
1.000000 0.300000 0.000000
1.000000 0.310000 0.000000
1.000000 0.320000 0.000000
1.000000 0.330000 0.000000
1.000000 0.340000 0.000000
1.000000 0.350000 0.000000
1.000000 0.360000 0.000000
1.000000 0.370000 0.000000
1.000000 0.380000 0.000000
1.000000 0.390000 0.000000
1.000000 0.400000 0.000000
1.000000 0.410000 0.000000
1.000000 0.420000 0.000000
1.000000 0.430000 0.000000
1.000000 0.440000 0.000000
1.000000 0.450000 0.000000
1.000000 0.460000 0.000000
1.000000 0.470000 0.000000
1.000000 0.480000 0.000000
1.000000 0.490000 0.000000
1.000000 0.500000 0.000000
1.000000 0.510000 0.000000
1.000000 0.520000 0.000000
1.000000 0.530000 0.000000
1.000000 0.540000 0.000000
1.000000 0.550000 0.000000
1.000000 0.560000 0.000000
1.000000 0.570000 0.000000
1.000000 0.580000 0.000000
1.000000 0.590000 0.000000
1.000000 0.600000 0.000000
1.000000 0.610000 0.000000
1.000000 0.620000 0.000000
1.000000 0.630000 0.000000
1.000000 0.640000 0.000000
1.000000 0.650000 0.000000
1.000000 0.660000 0.000000
1.000000 0.670000 0.000000
1.000000 0.680000 0.000000
1.000000 0.690000 0.000000
1.000000 0.700000 0.000000
1.000000 0.710000 0.000000
1.000000 0.720000 0.000000
1.000000 0.730000 0.000000
1.000000 0.740000 0.000000
1.000000 0.750000 0.000000
1.000000 0.760000 0.000000
1.000000 0.770000 0.000000
1.000000 0.780000 0.000000
1.000000 0.790000 0.000000
1.000000 0.800000 0.000000
1.000000 0.810000 0.000000
1.000000 0.820000 0.000000
1.000000 0.830000 0.000000
1.000000 0.840000 0.000000
1.000000 0.850000 0.000000
1.000000 0.860000 0.000000
1.000000 0.870000 0.000000
1.000000 0.880000 0.000000
1.000000 0.890000 0.000000
1.000000 0.900000 0.000000
1.000000 0.910000 0.000000
1.000000 0.920000 0.000000
1.000000 0.930000 0.000000
1.000000 0.940000 0.000000
1.000000 0.950000 0.000000
1.000000 0.960000 0.000000
1.000000 0.970000 0.000000
1.000000 0.980000 0.000000
1.000000 0.990000 0.000000
0.990000 1.000000 0.000000
0.980000 1.000000 0.000000
0.970000 1.000000 0.000000
0.960000 1.000000 0.000000
0.950000 1.000000 0.000000
0.940000 1.000000 0.000000
0.930000 1.000000 0.000000
0.920000 1.000000 0.000000
0.910000 1.000000 0.000000
0.900000 1.000000 0.000000
0.890000 1.000000 0.000000
0.880000 1.000000 0.000000
0.870000 1.000000 0.000000
0.860000 1.000000 0.000000
0.850000 1.000000 0.000000
0.840000 1.000000 0.000000
0.830000 1.000000 0.000000
0.820000 1.000000 0.000000
0.810000 1.000000 0.000000
0.800000 1.000000 0.000000
0.790000 1.000000 0.000000
0.780000 1.000000 0.000000
0.770000 1.000000 0.000000
0.760000 1.000000 0.000000
0.750000 1.000000 0.000000
0.740000 1.000000 0.000000
0.730000 1.000000 0.000000
0.720000 1.000000 0.000000
0.710000 1.000000 0.000000
0.700000 1.000000 0.000000
0.690000 1.000000 0.000000
0.680000 1.000000 0.000000
0.670000 1.000000 0.000000
0.660000 1.000000 0.000000
0.650000 1.000000 0.000000
0.640000 1.000000 0.000000
0.630000 1.000000 0.000000
0.620000 1.000000 0.000000
0.610000 1.000000 0.000000
0.600000 1.000000 0.000000
0.590000 1.000000 0.000000
0.580000 1.000000 0.000000
0.570000 1.000000 0.000000
0.560000 1.000000 0.000000
0.550000 1.000000 0.000000
0.540000 1.000000 0.000000
0.530000 1.000000 0.000000
0.520000 1.000000 0.000000
0.510000 1.000000 0.000000
0.500000 1.000000 0.000000
0.490000 1.000000 0.000000
0.480000 1.000000 0.000000
0.470000 1.000000 0.000000
0.460000 1.000000 0.000000
0.450000 1.000000 0.000000
0.440000 1.000000 0.000000
0.430000 1.000000 0.000000
0.420000 1.000000 0.000000
0.410000 1.000000 0.000000
0.400000 1.000000 0.000000
0.390000 1.000000 0.000000
0.380000 1.000000 0.000000
0.370000 1.000000 0.000000
0.360000 1.000000 0.000000
0.350000 1.000000 0.000000
0.340000 1.000000 0.000000
0.330000 1.000000 0.000000
0.320000 1.000000 0.000000
0.310000 1.000000 0.000000
0.300000 1.000000 0.000000
0.290000 1.000000 0.000000
0.280000 1.000000 0.000000
0.270000 1.000000 0.000000
0.260000 1.000000 0.000000
0.250000 1.000000 0.000000
0.240000 1.000000 0.000000
0.230000 1.000000 0.000000
0.220000 1.000000 0.000000
0.210000 1.000000 0.000000
0.200000 1.000000 0.000000
0.190000 1.000000 0.000000
0.180000 1.000000 0.000000
0.170000 1.000000 0.000000
0.160000 1.000000 0.000000
0.150000 1.000000 0.000000
0.140000 1.000000 0.000000
0.130000 1.000000 0.000000
0.120000 1.000000 0.000000
0.110000 1.000000 0.000000
0.100000 1.000000 0.000000
0.090000 1.000000 0.000000
0.080000 1.000000 0.000000
0.070000 1.000000 0.000000
0.060000 1.000000 0.000000
0.050000 1.000000 0.000000
0.040000 1.000000 0.000000
0.030000 1.000000 0.000000
0.020000 1.000000 0.000000
0.010000 1.000000 0.000000
0.000000 0.990000 0.000000
0.000000 0.980000 0.000000
0.000000 0.970000 0.000000
0.000000 0.960000 0.000000
0.000000 0.950000 0.000000
0.000000 0.940000 0.000000
0.000000 0.930000 0.000000
0.000000 0.920000 0.000000
0.000000 0.910000 0.000000
0.000000 0.900000 0.000000
0.000000 0.890000 0.000000
0.000000 0.880000 0.000000
0.000000 0.870000 0.000000
0.000000 0.860000 0.000000
0.000000 0.850000 0.000000
0.000000 0.840000 0.000000
0.000000 0.830000 0.000000
0.000000 0.820000 0.000000
0.000000 0.810000 0.000000
0.000000 0.800000 0.000000
0.000000 0.790000 0.000000
0.000000 0.780000 0.000000
0.000000 0.770000 0.000000
0.000000 0.760000 0.000000
0.000000 0.750000 0.000000
0.000000 0.740000 0.000000
0.000000 0.730000 0.000000
0.000000 0.720000 0.000000
0.000000 0.710000 0.000000
0.000000 0.700000 0.000000
0.000000 0.690000 0.000000
0.000000 0.680000 0.000000
0.000000 0.670000 0.000000
0.000000 0.660000 0.000000
0.000000 0.650000 0.000000
0.000000 0.640000 0.000000
0.000000 0.630000 0.000000
0.000000 0.620000 0.000000
0.000000 0.610000 0.000000
0.000000 0.600000 0.000000
0.000000 0.590000 0.000000
0.000000 0.580000 0.000000
0.000000 0.570000 0.000000
0.000000 0.560000 0.000000
0.000000 0.550000 0.000000
0.000000 0.540000 0.000000
0.000000 0.530000 0.000000
0.000000 0.520000 0.000000
0.000000 0.510000 0.000000
0.000000 0.500000 0.000000
0.000000 0.490000 0.000000
0.000000 0.480000 0.000000
0.000000 0.470000 0.000000
0.000000 0.460000 0.000000
0.000000 0.450000 0.000000
0.000000 0.440000 0.000000
0.000000 0.430000 0.000000
0.000000 0.420000 0.000000
0.000000 0.410000 0.000000
0.000000 0.400000 0.000000
0.000000 0.390000 0.000000
0.000000 0.380000 0.000000
0.000000 0.370000 0.000000
0.000000 0.360000 0.000000
0.000000 0.350000 0.000000
[...]
POINT_DATA 11827
VECTORS displacement float
0.000000 0.000000 0.000000
0.014202 0.000000 0.000000
0.007154 -0.024902 0.000000
0.007048 -0.024902 0.000000
0.000143 0.000000 0.000000
0.000286 0.000000 0.000000
0.000430 0.000000 0.000000
0.000575 0.000000 0.000000
0.000719 0.000000 0.000000
0.000864 0.000000 0.000000
0.001008 0.000000 0.000000
0.001153 0.000000 0.000000
0.001298 0.000000 0.000000
0.001442 0.000000 0.000000
0.001587 0.000000 0.000000
0.001731 0.000000 0.000000
0.001875 0.000000 0.000000
0.002019 0.000000 0.000000
0.002163 0.000000 0.000000
0.002306 0.000000 0.000000
0.002450 0.000000 0.000000
0.002593 0.000000 0.000000
0.002736 0.000000 0.000000
0.002879 0.000000 0.000000
0.003022 0.000000 0.000000
0.003164 0.000000 0.000000
0.003307 0.000000 0.000000
0.003449 0.000000 0.000000
0.003591 0.000000 0.000000
0.003733 0.000000 0.000000
0.003874 0.000000 0.000000
0.004016 0.000000 0.000000
0.004157 0.000000 0.000000
0.004299 0.000000 0.000000
0.004440 0.000000 0.000000
0.004580 0.000000 0.000000
0.004721 0.000000 0.000000
0.004862 0.000000 0.000000
0.005002 0.000000 0.000000
0.005143 0.000000 0.000000
0.005283 0.000000 0.000000
0.005423 0.000000 0.000000
0.005563 0.000000 0.000000
0.005703 0.000000 0.000000
0.005843 0.000000 0.000000
0.005983 0.000000 0.000000
0.006123 0.000000 0.000000
0.006263 0.000000 0.000000
0.006403 0.000000 0.000000
0.006542 0.000000 0.000000
0.006682 0.000000 0.000000
0.006822 0.000000 0.000000
0.006961 0.000000 0.000000
0.007101 0.000000 0.000000
0.007240 0.000000 0.000000
0.007380 0.000000 0.000000
0.007520 0.000000 0.000000
0.007659 0.000000 0.000000
0.007799 0.000000 0.000000
0.007939 0.000000 0.000000
0.008078 0.000000 0.000000
0.008218 0.000000 0.000000
0.008358 0.000000 0.000000
0.008498 0.000000 0.000000
0.008638 0.000000 0.000000
0.008778 0.000000 0.000000
0.008918 0.000000 0.000000
0.009059 0.000000 0.000000
0.009199 0.000000 0.000000
0.009340 0.000000 0.000000
0.009480 0.000000 0.000000
0.009621 0.000000 0.000000
0.009762 0.000000 0.000000
0.009903 0.000000 0.000000
0.010044 0.000000 0.000000
0.010186 0.000000 0.000000
0.010327 0.000000 0.000000
0.010469 0.000000 0.000000
0.010611 0.000000 0.000000
0.010753 0.000000 0.000000
0.010895 0.000000 0.000000
0.011037 0.000000 0.000000
0.011180 0.000000 0.000000
0.011322 0.000000 0.000000
0.011465 0.000000 0.000000
0.011608 0.000000 0.000000
0.011752 0.000000 0.000000
0.011895 0.000000 0.000000
0.012039 0.000000 0.000000
0.012183 0.000000 0.000000
0.012327 0.000000 0.000000
0.012471 0.000000 0.000000
0.012615 0.000000 0.000000
0.012759 0.000000 0.000000
0.012904 0.000000 0.000000
0.013049 0.000000 0.000000
0.013193 0.000000 0.000000
0.013338 0.000000 0.000000
0.013482 0.000000 0.000000
0.013627 0.000000 0.000000
0.013771 0.000000 0.000000
0.013915 0.000000 0.000000
0.014059 0.000000 0.000000
0.014196 -0.000471 0.000000
0.014184 -0.000938 0.000000
0.014166 -0.001401 0.000000
0.014143 -0.001860 0.000000
0.014115 -0.002315 0.000000
0.014084 -0.002767 0.000000
0.014049 -0.003215 0.000000
0.014011 -0.003659 0.000000
0.013970 -0.004099 0.000000
0.013926 -0.004535 0.000000
0.013879 -0.004967 0.000000
0.013830 -0.005395 0.000000
0.013779 -0.005820 0.000000
0.013726 -0.006240 0.000000
0.013671 -0.006656 0.000000
0.013614 -0.007068 0.000000
0.013555 -0.007475 0.000000
0.013495 -0.007879 0.000000
0.013433 -0.008278 0.000000
0.013370 -0.008673 0.000000
0.013306 -0.009064 0.000000
0.013240 -0.009451 0.000000
0.013174 -0.009833 0.000000
0.013106 -0.010211 0.000000
0.013037 -0.010585 0.000000
0.012968 -0.010954 0.000000
0.012897 -0.011319 0.000000
0.012826 -0.011679 0.000000
0.012754 -0.012035 0.000000
0.012681 -0.012387 0.000000
0.012607 -0.012733 0.000000
0.012533 -0.013076 0.000000
0.012459 -0.013414 0.000000
0.012383 -0.013747 0.000000
0.012308 -0.014076 0.000000
0.012232 -0.014400 0.000000
0.012155 -0.014719 0.000000
0.012078 -0.015034 0.000000
0.012001 -0.015344 0.000000
0.011923 -0.015649 0.000000
0.011845 -0.015950 0.000000
0.011767 -0.016246 0.000000
0.011688 -0.016537 0.000000
0.011609 -0.016824 0.000000
0.011530 -0.017106 0.000000
0.011451 -0.017383 0.000000
0.011372 -0.017655 0.000000
0.011292 -0.017922 0.000000
0.011212 -0.018184 0.000000
0.011133 -0.018442 0.000000
0.011053 -0.018695 0.000000
0.010973 -0.018943 0.000000
0.010893 -0.019186 0.000000
0.010812 -0.019424 0.000000
0.010732 -0.019657 0.000000
0.010652 -0.019885 0.000000
0.010571 -0.020108 0.000000
0.010491 -0.020327 0.000000
0.010411 -0.020540 0.000000
0.010330 -0.020748 0.000000
0.010250 -0.020951 0.000000
0.010169 -0.021150 0.000000
0.010089 -0.021343 0.000000
0.010009 -0.021531 0.000000
0.009928 -0.021715 0.000000
0.009848 -0.021893 0.000000
0.009768 -0.022066 0.000000
0.009687 -0.022234 0.000000
0.009607 -0.022397 0.000000
0.009527 -0.022555 0.000000
0.009447 -0.022708 0.000000
0.009366 -0.022856 0.000000
0.009286 -0.022998 0.000000
0.009207 -0.023136 0.000000
0.009126 -0.023269 0.000000
0.009047 -0.023396 0.000000
0.008967 -0.023518 0.000000
0.008887 -0.023636 0.000000
0.008808 -0.023747 0.000000
0.008728 -0.023854 0.000000
0.008649 -0.023956 0.000000
0.008569 -0.024053 0.000000
0.008490 -0.024144 0.000000
0.008411 -0.024230 0.000000
0.008332 -0.024311 0.000000
0.008253 -0.024387 0.000000
0.008174 -0.024458 0.000000
0.008095 -0.024523 0.000000
0.008016 -0.024584 0.000000
0.007937 -0.024639 0.000000
0.007859 -0.024688 0.000000
0.007780 -0.024733 0.000000
0.007702 -0.024772 0.000000
0.007623 -0.024806 0.000000
0.007545 -0.024835 0.000000
0.007466 -0.024859 0.000000
0.007388 -0.024878 0.000000
0.007310 -0.024891 0.000000
0.007232 -0.024899 0.000000
0.007154 -0.024978 0.000000
0.007154 -0.025055 0.000000
0.007153 -0.025129 0.000000
0.007153 -0.025202 0.000000
0.007153 -0.025273 0.000000
0.007153 -0.025343 0.000000
0.007153 -0.025411 0.000000
0.007153 -0.025477 0.000000
0.007153 -0.025542 0.000000
0.007153 -0.025605 0.000000
0.007153 -0.025666 0.000000
0.007153 -0.025726 0.000000
0.007153 -0.025784 0.000000
0.007153 -0.025841 0.000000
0.007153 -0.025896 0.000000
0.007153 -0.025949 0.000000
0.007153 -0.026001 0.000000
0.007152 -0.026051 0.000000
0.007152 -0.026099 0.000000
0.007151 -0.026146 0.000000
0.007151 -0.026191 0.000000
0.007150 -0.026235 0.000000
0.007150 -0.026276 0.000000
0.007149 -0.026317 0.000000
0.007148 -0.026355 0.000000
0.007147 -0.026393 0.000000
0.007146 -0.026428 0.000000
0.007145 -0.026462 0.000000
0.007143 -0.026494 0.000000
0.007142 -0.026525 0.000000
0.007140 -0.026555 0.000000
0.007139 -0.026582 0.000000
0.007137 -0.026609 0.000000
0.007136 -0.026633 0.000000
0.007134 -0.026656 0.000000
0.007132 -0.026678 0.000000
0.007130 -0.026698 0.000000
0.007128 -0.026717 0.000000
0.007126 -0.026734 0.000000
0.007124 -0.026749 0.000000
0.007122 -0.026763 0.000000
0.007120 -0.026776 0.000000
0.007117 -0.026787 0.000000
0.007115 -0.026797 0.000000
0.007113 -0.026805 0.000000
0.007110 -0.026811 0.000000
0.007108 -0.026817 0.000000
0.007106 -0.026820 0.000000
0.007103 -0.026822 0.000000
0.007101 -0.026823 0.000000
0.007098 -0.026822 0.000000
0.007096 -0.026820 0.000000
0.007094 -0.026817 0.000000
0.007091 -0.026811 0.000000
0.007089 -0.026805 0.000000
0.007086 -0.026797 0.000000
0.007084 -0.026787 0.000000
0.007082 -0.026776 0.000000
0.007080 -0.026763 0.000000
0.007078 -0.026749 0.000000
0.007075 -0.026734 0.000000
0.007073 -0.026717 0.000000
0.007071 -0.026698 0.000000
0.007069 -0.026678 0.000000
0.007068 -0.026656 0.000000
0.007066 -0.026633 0.000000
0.007064 -0.026609 0.000000
0.007062 -0.026582 0.000000
0.007061 -0.026555 0.000000
0.007060 -0.026525 0.000000
0.007058 -0.026494 0.000000
0.007057 -0.026462 0.000000
0.007056 -0.026428 0.000000
0.007055 -0.026393 0.000000
0.007054 -0.026355 0.000000
0.007053 -0.026317 0.000000
0.007052 -0.026276 0.000000
0.007051 -0.026235 0.000000
0.007051 -0.026191 0.000000
0.007050 -0.026146 0.000000
0.007050 -0.026099 0.000000
0.007049 -0.026051 0.000000
0.007049 -0.026001 0.000000
0.007049 -0.025949 0.000000
0.007049 -0.025896 0.000000
0.007048 -0.025841 0.000000
0.007048 -0.025784 0.000000
0.007048 -0.025726 0.000000
0.007048 -0.025666 0.000000
0.007048 -0.025605 0.000000
0.007048 -0.025542 0.000000
0.007048 -0.025477 0.000000
0.007048 -0.025411 0.000000
0.007048 -0.025343 0.000000
0.007048 -0.025273 0.000000
0.007048 -0.025202 0.000000
0.007048 -0.025129 0.000000
0.007048 -0.025055 0.000000
0.007048 -0.024979 0.000000
0.006970 -0.024899 0.000000
0.006892 -0.024891 0.000000
0.006813 -0.024878 0.000000
0.006735 -0.024859 0.000000
0.006657 -0.024835 0.000000
0.006579 -0.024806 0.000000
0.006500 -0.024772 0.000000
0.006422 -0.024733 0.000000
0.006343 -0.024688 0.000000
0.006264 -0.024639 0.000000
0.006186 -0.024583 0.000000
0.006107 -0.024523 0.000000
0.006028 -0.024458 0.000000
0.005949 -0.024387 0.000000
0.005870 -0.024311 0.000000
0.005791 -0.024230 0.000000
0.005712 -0.024144 0.000000
0.005632 -0.024053 0.000000
0.005553 -0.023956 0.000000
0.005474 -0.023854 0.000000
0.005394 -0.023747 0.000000
0.005314 -0.023635 0.000000
0.005235 -0.023518 0.000000
0.005155 -0.023396 0.000000
0.005075 -0.023269 0.000000
0.004995 -0.023136 0.000000
0.004915 -0.022999 0.000000
0.004835 -0.022856 0.000000
0.004755 -0.022708 0.000000
0.004675 -0.022555 0.000000
0.004595 -0.022397 0.000000
0.004515 -0.022234 0.000000
0.004434 -0.022066 0.000000
0.004354 -0.021893 0.000000
0.004273 -0.021715 0.000000
0.004193 -0.021531 0.000000
0.004113 -0.021343 0.000000
0.004032 -0.021150 0.000000
0.003952 -0.020951 0.000000
0.003871 -0.020748 0.000000
0.003791 -0.020540 0.000000
0.003710 -0.020327 0.000000
0.003630 -0.020108 0.000000
0.003550 -0.019885 0.000000
0.003469 -0.019657 0.000000
0.003389 -0.019424 0.000000
0.003309 -0.019186 0.000000
0.003229 -0.018943 0.000000
0.003149 -0.018695 0.000000
0.003069 -0.018442 0.000000
0.002989 -0.018185 0.000000
0.002909 -0.017922 0.000000
0.002830 -0.017655 0.000000
0.002750 -0.017383 0.000000
0.002671 -0.017106 0.000000
0.002592 -0.016824 0.000000
0.002513 -0.016538 0.000000
0.002435 -0.016246 0.000000
0.002357 -0.015950 0.000000
0.002279 -0.015650 0.000000
0.002201 -0.015344 0.000000
0.002124 -0.015034 0.000000
0.002047 -0.014719 0.000000
0.001970 -0.014400 0.000000
0.001894 -0.014076 0.000000
0.001818 -0.013747 0.000000
0.001743 -0.013414 0.000000
0.001668 -0.013076 0.000000
0.001594 -0.012733 0.000000
0.001521 -0.012387 0.000000
0.001448 -0.012035 0.000000
0.001376 -0.011679 0.000000
0.001305 -0.011319 0.000000
0.001234 -0.010954 0.000000
0.001164 -0.010585 0.000000
0.001096 -0.010211 0.000000
0.001028 -0.009833 0.000000
0.000961 -0.009451 0.000000
0.000896 -0.009064 0.000000
0.000831 -0.008673 0.000000
0.000768 -0.008278 0.000000
0.000706 -0.007879 0.000000
0.000646 -0.007475 0.000000
0.000588 -0.007068 0.000000
0.000531 -0.006656 0.000000
0.000476 -0.006240 0.000000
0.000423 -0.005820 0.000000
0.000371 -0.005396 0.000000
0.000322 -0.004968 0.000000
0.000276 -0.004535 0.000000
0.000232 -0.004099 0.000000
0.000191 -0.003659 0.000000
0.000152 -0.003215 0.000000
0.000117 -0.002767 0.000000
0.000086 -0.002315 0.000000
0.000059 -0.001860 0.000000
0.000036 -0.001400 0.000000
0.000018 -0.000938 0.000000
0.000005 -0.000471 0.000000
0.003105 -0.018406 0.000000
0.007171 -0.000459 0.000000
0.011030 -0.018612 0.000000
0.007099 -0.026820 0.000000
0.003806 -0.020503 0.000000
0.007131 -0.026767 0.000000
0.005914 -0.000459 0.000000
0.011726 -0.016174 0.000000
0.008428 -0.000459 0.000000
0.010315 -0.020715 0.000000
0.007067 -0.026754 0.000000
0.002394 -0.015851 0.000000
0.007156 -0.026619 0.000000
0.004437 -0.022043 0.000000
0.004792 -0.000457 0.000000
0.012334 -0.013634 0.000000
0.009680 -0.022226 0.000000
0.007041 -0.026593 0.000000
0.001793 -0.013309 0.000000
0.009550 -0.000456 0.000000
0.003804 -0.000454 0.000000
0.012835 -0.011200 0.000000
0.007177 -0.026408 0.000000
0.004987 -0.023130 0.000000
0.009132 -0.023272 0.000000
0.007026 -0.026372 0.000000
0.001286 -0.010819 0.000000
0.010539 -0.000453 0.000000
0.002951 -0.000450 0.000000
0.013226 -0.008963 0.000000
0.005458 -0.023862 0.000000
0.007183 -0.026165 0.000000
0.011393 -0.000449 0.000000
0.000895 -0.008532 0.000000
0.008668 -0.023963 0.000000
0.007010 -0.026120 0.000000
0.002236 -0.000445 0.000000
0.005850 -0.024336 0.000000
0.013529 -0.006927 0.000000
0.007194 -0.025920 0.000000
0.000612 -0.006473 0.000000
0.012109 -0.000444 0.000000
0.008276 -0.024416 0.000000
0.007002 -0.025866 0.000000
0.013786 -0.004776 0.000000
0.001516 -0.000439 0.000000
0.006240 -0.024674 0.000000
0.007207 -0.025634 0.000000
0.007145 -0.026705 0.000000
0.004122 -0.021309 0.000000
0.006612 -0.000459 0.000000
0.007117 -0.026806 0.000000
0.003484 -0.019588 0.000000
0.007729 -0.000459 0.000000
0.008988 -0.000458 0.000000
0.012686 -0.000439 0.000000
0.002781 -0.017309 0.000000
0.002090 -0.014624 0.000000
0.000427 -0.004785 0.000000
0.005354 -0.000458 0.000000
0.011419 -0.017313 0.000000
0.010718 -0.019587 0.000000
0.009995 -0.021516 0.000000
0.007959 -0.024683 0.000000
0.007084 -0.026806 0.000000
0.007053 -0.026686 0.000000
0.006995 -0.025634 0.000000
0.012028 -0.014959 0.000000
0.006989 -0.025375 0.000000
0.007652 -0.024860 0.000000
0.013264 -0.000431 0.000000
0.000250 -0.002997 0.000000
0.006549 -0.024861 0.000000
0.007206 -0.025374 0.000000
0.013950 -0.003020 0.000000
0.000938 -0.000431 0.000000
0.007166 -0.026538 0.000000
0.004672 -0.022536 0.000000
0.004370 -0.000456 0.000000
0.003379 -0.000452 0.000000
0.010114 -0.000455 0.000000
0.010965 -0.000451 0.000000
0.005219 -0.023517 0.000000
0.001501 -0.011887 0.000000
0.001096 -0.009701 0.000000
0.009447 -0.022701 0.000000
0.007033 -0.026508 0.000000
0.013033 -0.010112 0.000000
0.012546 -0.012648 0.000000
0.008901 -0.023638 0.000000
0.007180 -0.026294 0.000000
0.007022 -0.026252 0.000000
0.014032 -0.001645 0.000000
0.000170 -0.001642 0.000000
0.007421 -0.024932 0.000000
0.006985 -0.025164 0.000000
0.000505 -0.000424 0.000000
0.007221 -0.025154 0.000000
0.013697 -0.000424 0.000000
0.006779 -0.024936 0.000000
0.004280 -0.021691 0.000000
0.007151 -0.026666 0.000000
0.003975 -0.020939 0.000000
0.007139 -0.026739 0.000000
0.001804 -0.000442 0.000000
0.000507 -0.005651 0.000000
0.009269 -0.000457 0.000000
0.001957 -0.013998 0.000000
0.008008 -0.000459 0.000000
0.006403 -0.024790 0.000000
0.005619 -0.024081 0.000000
0.002561 -0.016493 0.000000
0.013695 -0.005612 0.000000
0.009826 -0.021905 0.000000
0.007047 -0.026643 0.000000
0.006998 -0.025754 0.000000
0.004087 -0.000455 0.000000
0.010548 -0.020078 0.000000
0.007078 -0.026790 0.000000
0.007195 -0.026024 0.000000
0.006193 -0.000459 0.000000
0.006891 -0.000459 0.000000
0.007450 -0.000459 0.000000
0.008708 -0.000458 0.000000
0.011822 -0.000446 0.000000
0.012397 -0.000442 0.000000
0.012975 -0.000435 0.000000
0.006088 -0.024558 0.000000
0.004837 -0.022857 0.000000
0.003246 -0.018883 0.000000
0.002935 -0.017837 0.000000
0.002243 -0.015256 0.000000
0.000717 -0.007339 0.000000
0.002523 -0.000447 0.000000
0.005073 -0.000457 0.000000
0.009832 -0.000456 0.000000
0.001656 -0.012648 0.000000
0.008501 -0.024174 0.000000
0.007209 -0.025508 0.000000
0.007011 -0.026023 0.000000
0.012700 -0.011885 0.000000
0.005634 -0.000458 0.000000
0.013418 -0.007702 0.000000
0.000326 -0.003914 0.000000
0.003655 -0.020082 0.000000
0.011577 -0.016724 0.000000
0.011182 -0.018124 0.000000
0.010869 -0.019130 0.000000
0.010163 -0.021109 0.000000
0.009277 -0.023020 0.000000
0.008114 -0.024558 0.000000
0.007796 -0.024791 0.000000
0.007202 -0.025753 0.000000
0.007172 -0.026476 0.000000
0.007125 -0.026790 0.000000
0.007106 -0.026819 0.000000
0.007092 -0.026816 0.000000
0.007059 -0.026723 0.000000
0.007027 -0.026443 0.000000
0.001227 -0.000435 0.000000
0.012202 -0.014297 0.000000
0.011863 -0.015616 0.000000
0.013861 -0.003953 0.000000
0.006992 -0.025508 0.000000
0.014062 -0.000757 0.000000
0.000139 -0.000757 0.000000
0.007268 -0.024961 0.000000
0.006932 -0.024960 0.000000
0.013553 -0.000427 0.000000
0.013619 -0.000847 0.000000
0.013762 -0.000841 0.000000
0.013680 -0.001260 0.000000
0.013537 -0.001269 0.000000
0.013595 -0.001679 0.000000
0.013453 -0.001690 0.000000
0.013507 -0.002096 0.000000
0.013366 -0.002109 0.000000
0.013417 -0.002512 0.000000
0.013277 -0.002526 0.000000
0.013326 -0.002926 0.000000
0.013186 -0.002942 0.000000
0.013232 -0.003338 0.000000
0.013093 -0.003356 0.000000
0.013137 -0.003748 0.000000
0.012999 -0.003767 0.000000
0.013041 -0.004157 0.000000
0.012904 -0.004176 0.000000
0.012944 -0.004563 0.000000
0.012808 -0.004583 0.000000
0.012846 -0.004966 0.000000
0.012711 -0.004988 0.000000
0.012747 -0.005367 0.000000
0.012613 -0.005390 0.000000
0.012648 -0.005766 0.000000
0.012514 -0.005789 0.000000
0.012548 -0.006162 0.000000
0.012415 -0.006186 0.000000
0.012447 -0.006555 0.000000
0.012316 -0.006579 0.000000
0.012347 -0.006945 0.000000
0.012216 -0.006970 0.000000
0.012246 -0.007333 0.000000
0.012116 -0.007359 0.000000
0.012144 -0.007718 0.000000
0.012016 -0.007744 0.000000
0.012043 -0.008099 0.000000
0.011916 -0.008126 0.000000
0.011942 -0.008478 0.000000
0.011816 -0.008505 0.000000
0.011841 -0.008854 0.000000
0.011716 -0.008881 0.000000
0.011740 -0.009226 0.000000
0.011616 -0.009253 0.000000
0.011640 -0.009595 0.000000
0.011516 -0.009623 0.000000
0.011539 -0.009961 0.000000
0.011417 -0.009989 0.000000
0.011439 -0.010324 0.000000
0.011318 -0.010352 0.000000
0.011340 -0.010683 0.000000
0.011220 -0.010711 0.000000
0.011240 -0.011039 0.000000
0.011122 -0.011067 0.000000
0.011142 -0.011392 0.000000
0.011024 -0.011420 0.000000
0.011044 -0.011741 0.000000
0.010927 -0.011769 0.000000
0.010946 -0.012086 0.000000
0.010831 -0.012115 0.000000
0.010850 -0.012429 0.000000
0.010735 -0.012457 0.000000
0.010754 -0.012767 0.000000
0.010640 -0.012795 0.000000
0.010621 -0.012484 0.000000
0.010527 -0.012822 0.000000
0.010546 -0.013130 0.000000
0.010434 -0.013157 0.000000
0.010453 -0.013462 0.000000
0.010342 -0.013488 0.000000
0.010360 -0.013789 0.000000
0.010250 -0.013816 0.000000
0.010269 -0.014113 0.000000
0.010160 -0.014140 0.000000
0.010178 -0.014434 0.000000
0.010070 -0.014460 0.000000
0.010088 -0.014750 0.000000
0.009982 -0.014777 0.000000
0.009999 -0.015063 0.000000
0.009894 -0.015089 0.000000
0.009911 -0.015372 0.000000
0.009808 -0.015398 0.000000
0.009825 -0.015677 0.000000
0.009722 -0.015703 0.000000
0.009739 -0.015979 0.000000
0.009637 -0.016004 0.000000
0.009654 -0.016276 0.000000
0.009554 -0.016302 0.000000
0.009570 -0.016570 0.000000
0.009472 -0.016595 0.000000
0.009488 -0.016860 0.000000
0.009390 -0.016885 0.000000
0.009372 -0.016619 0.000000
0.009292 -0.016908 0.000000
0.009310 -0.017170 0.000000
0.009214 -0.017194 0.000000
0.009231 -0.017452 0.000000
0.009136 -0.017475 0.000000
0.009154 -0.017730 0.000000
0.009060 -0.017752 0.000000
0.009077 -0.018003 0.000000
0.008984 -0.018026 0.000000
0.008965 -0.017774 0.000000
0.008891 -0.018047 0.000000
0.008871 -0.017794 0.000000
0.008798 -0.018067 0.000000
0.008776 -0.017813 0.000000
0.008705 -0.018086 0.000000
0.008681 -0.017831 0.000000
0.008611 -0.018103 0.000000
0.008586 -0.017848 0.000000
0.008518 -0.018120 0.000000
0.008491 -0.017863 0.000000
0.008424 -0.018135 0.000000
0.008396 -0.017878 0.000000
0.008330 -0.018149 0.000000
0.008301 -0.017891 0.000000
0.008236 -0.018162 0.000000
0.008205 -0.017903 0.000000
0.008142 -0.018174 0.000000
0.008109 -0.017914 0.000000
0.008047 -0.018184 0.000000
0.008014 -0.017924 0.000000
0.007953 -0.018194 0.000000
0.007918 -0.017933 0.000000
0.007859 -0.018203 0.000000
0.007822 -0.017941 0.000000
0.007764 -0.018210 0.000000
0.007726 -0.017948 0.000000
0.007669 -0.018217 0.000000
0.007630 -0.017954 0.000000
0.007575 -0.018223 0.000000
0.007534 -0.017959 0.000000
0.007480 -0.018227 0.000000
0.007438 -0.017963 0.000000
0.007385 -0.018231 0.000000
0.007341 -0.017966 0.000000
0.007428 -0.018491 0.000000
0.007334 -0.018494 0.000000
0.008173 -0.018428 0.000000
0.008819 -0.018316 0.000000
0.007377 -0.018750 0.000000
0.007285 -0.018752 0.000000
0.007327 -0.019005 0.000000
0.007237 -0.019007 0.000000
0.007279 -0.019255 0.000000
0.007190 -0.019257 0.000000